ITEM: TIMESTEP
1000
ITEM: NUMBER OF ATOMS
1600
ITEM: BOX BOUNDS pp pp pp
-3.0000000000000000e+01 3.0000000000000000e+01
-3.0000000000000000e+01 3.0000000000000000e+01
-5.0000000000000000e-01 5.0000000000000000e-01
ITEM: ATOMS id type xs ys zs
429 1 0.0150787 0.00940601 0.5
1363 1 0.0370564 0.000956845 0.5
1253 1 0.0450866 0.980708 0.5
657 1 0.0540879 0.995943 0.5
541 1 0.0728047 0.992899 0.5
431 1 0.0911317 0.997774 0.5
577 1 0.152678 0.0225195 0.5
635 1 0.201922 0.0176039 0.5
1332 1 0.192895 0.0449531 0.5
1055 1 0.246588 0.0261274 0.5
1323 1 0.218758 0.022018 0.5
987 1 0.287027 0.0182943 0.5
1488 1 0.263809 0.00480312 0.5
449 1 0.300248 0.00386387 0.5
42 1 0.317704 0.0075816 0.5
723 1 0.375789 0.99746 0.5
1106 1 0.395789 0.995471 0.5
764 1 0.412369 0.00508965 0.5
1506 2 0.463714 0.00451959 0.5
1449 1 0.496151 0.014705 0.5
1325 1 0.511203 0.00686729 0.5
1538 2 0.544466 0.00891239 0.5
1182 1 0.589685 0.0157271 0.5
480 1 0.625891 0.0073367 0.5
266 1 0.679754 0.014768 0.5
598 1 0.669792 0.998647 0.5
1018 1 0.701232 0.0134988 0.5
694 1 0.775864 0.0157161 0.5
366 1 0.791162 0.0129428 0.5
1383 1 0.798336 0.996004 0.5
248 1 0.822586 0.0320181 0.5
160 1 0.838163 0.0135415 0.5
399 1 0.853166 0.0333215 0.5
149 1 0.893444 0.99615 0.5
1178 1 0.913531 0.00615614 0.5
193 1 0.924366 0.990339 0.5
692 1 0.932457 0.00546418 0.5
1043 1 0.965302 0.995045 0.5
1222 1 0.0240468 0.0369421 0.5
796 1 0.0379062 0.0475251 0.5
1111 1 0.0582554 0.0164854 0.5
1563 2 0.0867404 0.0282617 0.5
558 1 0.121886 0.0314601 0.5
1493 1 0.140311 0.0345484 0.5
1116 1 0.209913 0.0387484 0.5
1394 1 0.241594 0.0471286 0.5
637 1 0.262069 0.0410465 0.5
128 1 0.270614 0.0216081 0.5
824 1 0.29431 0.0369599 0.5
678 1 0.328343 0.0310133 0.5
1076 1 0.353809 0.0170666 0.5
459 1 0.356297 0.0394977 0.5
119 1 0.387665 0.0122197 0.5
1148 1 0.40131 0.0261428 0.5
1257 1 0.418581 0.038166 0.5
1193 1 0.439894 0.0250034 0.5
57 1 0.457575 0.0385957 0.5
1310 1 0.484589 0.0456961 0.5
1494 1 0.516817 0.0255624 0.5
1258 1 0.541461 0.0459974 0.5
1251 1 0.591516 0.0348977 0.5
688 1 0.622045 0.0259973 0.5
486 1 0.651466 0.0153251 0.5
1358 1 0.636876 0.0370799 0.5
141 1 0.719858 0.0185842 0.5
1408 1 0.685433 0.0412165 0.5
1052 1 0.746496 0.0260688 0.5
108 1 0.750975 0.0423477 0.5
789 1 0.756853 0.0067565 0.5
1435 1 0.76634 0.029116 0.5
1438 1 0.797923 0.0290028 0.5
690 1 0.838425 0.0431163 0.5
665 1 0.875682 0.0386912 0.5
593 1 0.898401 0.0150519 0.5
1123 1 0.927298 0.025278 0.5
757 1 0.953584 0.00979886 0.5
259 1 0.943741 0.0336312 0.5
1598 2 0.992684 0.0275754 0.5
1567 2 0.00963491 0.0665608 0.5
551 1 0.0432957 0.0730027 0.5
580 1 0.0463362 0.0320764 0.5
1425 1 0.0751849 0.0621416 0.5
597 1 0.113923 0.0614548 0.5
432 1 0.0940195 0.0570399 0.5
46 1 0.130152 0.0494019 0.5
1475 1 0.162897 0.0423679 0.5
115 1 0.200901 0.0674313 0.5
496 1 0.179373 0.0827719 0.5
923 1 0.184471 0.0602454 0.5
1051 1 0.256617 0.0625037 0.5
579 1 0.274555 0.0649147 0.5
532 1 0.293158 0.0545798 0.5
1250 1 0.32123 0.0461816 0.5
276 1 0.317159 0.067756 0.5
847 1 0.338331 0.0772068 0.5
84 1 0.35598 0.0611443 0.5
384 1 0.387839 0.0596373 0.5
16 1 0.401361 0.0444141 0.5
337 1 0.372418 0.028078 0.5
616 1 0.421428 0.0629789 0.5
774 1 0.439275 0.0459505 0.5
500 1 0.467929 0.0522167 0.5
1001 1 0.506271 0.047281 0.5
801 1 0.558013 0.0335142 0.5
1105 1 0.551961 0.0618687 0.5
220 1 0.595207 0.0683671 0.5
1436 1 0.611627 0.0445675 0.5
553 1 0.651945 0.0485084 0.5
107 1 0.666142 0.0377689 0.5
849 1 0.731401 0.049373 0.5
1068 1 0.752147 0.0648037 0.5
1550 2 0.790537 0.0559708 0.5
388 1 0.824314 0.0554228 0.5
521 1 0.835194 0.0775159 0.5
827 1 0.86558 0.0673348 0.5
1175 1 0.926452 0.0483637 0.5
1130 1 0.944038 0.0530527 0.5
221 1 0.961758 0.0506484 0.5
23 1 0.0571807 0.058599 0.5
748 1 0.0677779 0.0799742 0.5
40 1 0.0858637 0.0755504 0.5
578 1 0.131841 0.0688403 0.5
126 1 0.0844052 0.101788 0.5
413 1 0.102488 0.0775046 0.5
1465 1 0.119268 0.0874467 0.5
491 1 0.148679 0.0674024 0.5
1074 1 0.176289 0.102061 0.5
1161 1 0.219489 0.0758459 0.5
1441 1 0.237651 0.0801602 0.5
1215 1 0.259836 0.0811492 0.5
430 1 0.291425 0.0734196 0.5
187 1 0.305805 0.106269 0.5
343 1 0.305998 0.0865828 0.5
495 1 0.327066 0.0993531 0.5
300 1 0.36895 0.075147 0.5
1525 2 0.403935 0.0835999 0.5
1526 2 0.446545 0.0784426 0.5
795 1 0.484442 0.0762303 0.5
436 1 0.49419 0.0625897 0.5
747 1 0.510088 0.0753475 0.5
197 1 0.525501 0.0933406 0.5
1564 2 0.623855 0.0695546 0.5
618 1 0.687312 0.0815194 0.5
1073 1 0.691693 0.0641178 0.5
409 1 0.777284 0.0943695 0.5
634 1 0.911226 0.0800984 0.5
845 1 0.957588 0.0667067 0.5
733 1 0.928927 0.0846859 0.5
176 1 0.967324 0.0838831 0.5
919 1 0.947712 0.0843929 0.5
422 1 0.980722 0.104412 0.5
230 1 0.0024719 0.114164 0.5
1266 1 0.0166072 0.12271 0.5
1592 2 0.0370752 0.101 0.5
1208 1 0.0711698 0.113037 0.5
7 1 0.0887809 0.120728 0.5
1424 1 0.103243 0.10521 0.5
229 1 0.146374 0.125069 0.5
1400 1 0.130032 0.139951 0.5
445 1 0.159019 0.0866048 0.5
302 1 0.159819 0.108923 0.5
1562 2 0.209125 0.104521 0.5
372 1 0.252108 0.116271 0.5
1010 1 0.269477 0.0991501 0.5
641 1 0.271226 0.117631 0.5
356 1 0.318088 0.118004 0.5
497 1 0.339069 0.113024 0.5
272 1 0.373306 0.0952715 0.5
1204 1 0.410347 0.124782 0.5
770 1 0.424923 0.117203 0.5
1327 1 0.479784 0.0923411 0.5
36 1 0.536548 0.120212 0.5
1576 2 0.571399 0.111556 0.5
1186 1 0.59963 0.106865 0.5
74 1 0.673099 0.0925463 0.5
255 1 0.732849 0.0996157 0.5
201 1 0.774378 0.114444 0.5
706 1 0.793549 0.11423 0.5
921 1 0.801002 0.0858035 0.5
610 1 0.81707 0.093263 0.5
1086 1 0.865472 0.118158 0.5
1237 1 0.894945 0.100724 0.5
342 1 0.874067 0.0833439 0.5
463 1 0.914584 0.10284 0.5
1035 1 0.932225 0.10208 0.5
181 1 0.960673 0.104156 0.5
1486 1 0.984291 0.123762 0.5
116 1 0.00446224 0.137077 0.5
142 1 0.0463029 0.139857 0.5
866 1 0.0259991 0.142004 0.5
516 1 0.061641 0.130409 0.5
489 1 0.12504 0.121627 0.5
856 1 0.102628 0.13275 0.5
1233 1 0.130287 0.103697 0.5
1254 1 0.151822 0.140977 0.5
555 1 0.165774 0.128408 0.5
811 1 0.190338 0.126543 0.5
652 1 0.230368 0.130309 0.5
672 1 0.290945 0.116157 0.5
1029 1 0.28933 0.139476 0.5
902 1 0.370304 0.119611 0.5
174 1 0.359782 0.140801 0.5
954 1 0.381089 0.13711 0.5
620 1 0.390999 0.117731 0.5
412 1 0.427713 0.139857 0.5
1597 2 0.457387 0.130128 0.5
1225 1 0.474203 0.156821 0.5
319 1 0.514052 0.13204 0.5
237 1 0.519951 0.157166 0.5
899 1 0.553311 0.145339 0.5
1079 1 0.535489 0.137391 0.5
398 1 0.622833 0.148885 0.5
995 1 0.611347 0.119601 0.5
1596 2 0.650724 0.117966 0.5
1288 1 0.753218 0.112278 0.5
1030 1 0.779392 0.13274 0.5
251 1 0.810407 0.125499 0.5
1414 1 0.838988 0.143251 0.5
1329 1 0.834658 0.123198 0.5
1146 1 0.870568 0.140195 0.5
148 1 0.934008 0.127925 0.5
273 1 0.902488 0.124983 0.5
888 1 0.962749 0.122961 0.5
1002 1 0.0086799 0.162224 0.5
768 1 0.0285049 0.157858 0.5
443 1 0.0458856 0.157801 0.5
1509 2 0.0782298 0.157808 0.5
428 1 0.112218 0.152885 0.5
732 1 0.129124 0.160727 0.5
1195 1 0.155429 0.158641 0.5
1061 1 0.17653 0.142764 0.5
949 1 0.210275 0.144552 0.5
777 1 0.190582 0.155518 0.5
1121 1 0.225943 0.152009 0.5
1083 1 0.245162 0.140255 0.5
214 1 0.262982 0.143644 0.5
143 1 0.267345 0.171282 0.5
1372 1 0.292072 0.166238 0.5
1226 1 0.360022 0.16212 0.5
1529 2 0.403706 0.155404 0.5
8 1 0.436088 0.162743 0.5
296 1 0.571816 0.180962 0.5
1588 2 0.592611 0.152595 0.5
253 1 0.642149 0.159924 0.5
943 1 0.668734 0.157701 0.5
54 1 0.767258 0.154318 0.5
393 1 0.82265 0.138763 0.5
663 1 0.852161 0.131961 0.5
1362 1 0.860727 0.156563 0.5
1026 1 0.883339 0.152518 0.5
1595 2 0.916334 0.153849 0.5
1566 2 0.974288 0.152743 0.5
965 1 0.0211614 0.174369 0.5
790 1 0.0321205 0.188817 0.5
186 1 0.0509964 0.179087 0.5
246 1 0.0947027 0.183918 0.5
437 1 0.11427 0.171503 0.5
1593 2 0.150386 0.188428 0.5
100 1 0.175142 0.164584 0.5
1103 1 0.201565 0.176081 0.5
525 1 0.226282 0.177041 0.5
881 1 0.249713 0.164524 0.5
714 1 0.281686 0.183285 0.5
1573 2 0.32576 0.152669 0.5
451 1 0.341557 0.174523 0.5
798 1 0.369967 0.182105 0.5
684 1 0.399184 0.196975 0.5
1521 2 0.460766 0.182854 0.5
1050 1 0.510998 0.20166 0.5
1015 1 0.558176 0.170789 0.5
1391 1 0.588244 0.186196 0.5
1533 2 0.617369 0.187687 0.5
41 1 0.656429 0.182876 0.5
573 1 0.698107 0.184128 0.5
262 1 0.692312 0.152872 0.5
31 1 0.720549 0.162249 0.5
857 1 0.755062 0.17186 0.5
503 1 0.767421 0.186804 0.5
1297 1 0.736097 0.174671 0.5
1558 2 0.801801 0.164552 0.5
1057 1 0.874334 0.171391 0.5
1411 1 0.890408 0.170144 0.5
49 1 0.904563 0.184563 0.5
203 1 0.95932 0.177628 0.5
1141 1 0.974805 0.183114 0.5
1487 1 0.00341474 0.183309 0.5
177 1 0.0145693 0.195469 0.5
738 1 0.0517762 0.205631 0.5
1097 1 0.071837 0.191669 0.5
96 1 0.125154 0.204873 0.5
1355 1 0.119403 0.187932 0.5
594 1 0.107209 0.2127 0.5
1469 1 0.17345 0.208397 0.5
648 1 0.18546 0.190902 0.5
1456 1 0.207711 0.19725 0.5
1206 1 0.241105 0.208571 0.5
1409 1 0.24341 0.183168 0.5
121 1 0.265413 0.209969 0.5
1132 1 0.261473 0.188472 0.5
1315 1 0.302096 0.181176 0.5
946 1 0.287972 0.199333 0.5
1431 1 0.318956 0.185961 0.5
560 1 0.327367 0.206655 0.5
162 1 0.335287 0.192795 0.5
172 1 0.353127 0.193969 0.5
132 1 0.367337 0.213297 0.5
673 1 0.406745 0.212444 0.5
99 1 0.420367 0.196625 0.5
137 1 0.443238 0.210024 0.5
465 1 0.469872 0.213447 0.5
147 1 0.47656 0.232706 0.5
1256 1 0.492214 0.1884 0.5
1271 1 0.562963 0.218392 0.5
1219 1 0.553711 0.194577 0.5
252 1 0.635964 0.213204 0.5
1038 1 0.647709 0.226709 0.5
1164 1 0.651094 0.201092 0.5
895 1 0.671325 0.192128 0.5
758 1 0.683195 0.206266 0.5
848 1 0.702172 0.201966 0.5
215 1 0.693969 0.221249 0.5
900 1 0.721203 0.192284 0.5
131 1 0.736945 0.205157 0.5
213 1 0.754674 0.199038 0.5
1133 1 0.784094 0.210894 0.5
279 1 0.797153 0.196705 0.5
1304 1 0.828 0.195179 0.5
941 1 0.844441 0.197373 0.5
1005 1 0.863473 0.205913 0.5
1262 1 0.88156 0.214098 0.5
386 1 0.884454 0.186981 0.5
196 1 0.90294 0.202825 0.5
1547 2 0.933507 0.195916 0.5
28 1 0.960607 0.196064 0.5
21 1 0.992683 0.19504 0.5
1120 1 0.0323424 0.232766 0.5
589 1 0.054575 0.233683 0.5
130 1 0.0722846 0.24191 0.5
676 1 0.0920035 0.233207 0.5
1100 1 0.0714815 0.218131 0.5
854 1 0.113323 0.249557 0.5
1220 1 0.127367 0.233006 0.5
484 1 0.14201 0.219292 0.5
1241 1 0.158903 0.223943 0.5
680 1 0.175932 0.234447 0.5
1143 1 0.193247 0.217314 0.5
833 1 0.21302 0.231734 0.5
917 1 0.256284 0.227271 0.5
563 1 0.238985 0.22601 0.5
1284 1 0.264253 0.245715 0.5
934 1 0.30138 0.216578 0.5
731 1 0.349361 0.216661 0.5
1377 1 0.362523 0.230636 0.5
267 1 0.385252 0.221296 0.5
321 1 0.395151 0.244867 0.5
1519 2 0.426325 0.232736 0.5
287 1 0.487434 0.218535 0.5
311 1 0.547777 0.235377 0.5
510 1 0.563032 0.246233 0.5
1517 2 0.59287 0.225078 0.5
5 1 0.619955 0.225217 0.5
365 1 0.646155 0.246346 0.5
600 1 0.6646 0.219191 0.5
756 1 0.68506 0.242709 0.5
280 1 0.71078 0.232916 0.5
861 1 0.721973 0.214195 0.5
784 1 0.766805 0.217948 0.5
330 1 0.775666 0.239004 0.5
1537 2 0.809754 0.22554 0.5
743 1 0.836491 0.212674 0.5
194 1 0.83626 0.235506 0.5
915 1 0.850779 0.223083 0.5
245 1 0.856396 0.24275 0.5
389 1 0.870116 0.227402 0.5
58 1 0.897473 0.226007 0.5
308 1 0.916208 0.221318 0.5
1437 1 0.936481 0.225977 0.5
697 1 0.953462 0.218708 0.5
1502 2 0.986702 0.233285 0.5
631 1 0.018427 0.259121 0.5
55 1 0.98556 0.276323 0.5
1356 1 0.0980696 0.259411 0.5
602 1 0.129073 0.253114 0.5
1013 1 0.148242 0.255579 0.5
154 1 0.165758 0.260317 0.5
440 1 0.16126 0.243607 0.5
964 1 0.144934 0.236793 0.5
111 1 0.193907 0.238473 0.5
571 1 0.210733 0.253136 0.5
232 1 0.230023 0.261129 0.5
367 1 0.213126 0.270686 0.5
1584 2 0.332188 0.240467 0.5
66 1 0.379202 0.238364 0.5
310 1 0.377305 0.258396 0.5
903 1 0.397898 0.268535 0.5
325 1 0.45852 0.232601 0.5
1017 1 0.506854 0.232709 0.5
728 1 0.528068 0.263827 0.5
123 1 0.552359 0.261753 0.5
327 1 0.581607 0.253908 0.5
740 1 0.61041 0.287079 0.5
1301 1 0.601072 0.253404 0.5
1173 1 0.613726 0.268592 0.5
60 1 0.618913 0.243882 0.5
285 1 0.650964 0.26413 0.5
1316 1 0.631277 0.263325 0.5
1479 1 0.663862 0.248876 0.5
1293 1 0.67143 0.265993 0.5
173 1 0.693559 0.262416 0.5
1063 1 0.733532 0.26676 0.5
1518 2 0.74256 0.233445 0.5
1037 1 0.773386 0.264447 0.5
1155 1 0.789597 0.250036 0.5
649 1 0.79063 0.267568 0.5
1500 1 0.838642 0.255099 0.5
504 1 0.868446 0.261816 0.5
153 1 0.899618 0.262414 0.5
120 1 0.889804 0.248476 0.5
1553 2 0.927524 0.254953 0.5
650 1 0.954811 0.24807 0.5
1577 2 0.0507492 0.273651 0.5
927 1 0.114961 0.267963 0.5
1433 1 0.116893 0.287976 0.5
304 1 0.129851 0.27619 0.5
329 1 0.193947 0.267851 0.5
76 1 0.248368 0.265906 0.5
1185 1 0.22768 0.279785 0.5
531 1 0.28162 0.28014 0.5
34 1 0.295606 0.268771 0.5
1091 1 0.304061 0.252349 0.5
1348 1 0.356654 0.250333 0.5
50 1 0.33953 0.274754 0.5
951 1 0.381028 0.276147 0.5
1150 1 0.413753 0.283641 0.5
1328 1 0.415413 0.26433 0.5
1169 1 0.433451 0.265415 0.5
190 1 0.451304 0.259946 0.5
1066 1 0.46933 0.262332 0.5
1000 1 0.512107 0.280126 0.5
223 1 0.551565 0.280472 0.5
893 1 0.568432 0.266121 0.5
326 1 0.59324 0.272178 0.5
1006 1 0.627013 0.280747 0.5
501 1 0.656896 0.281865 0.5
1470 1 0.674141 0.288406 0.5
425 1 0.693153 0.289113 0.5
668 1 0.70776 0.274572 0.5
75 1 0.755427 0.272432 0.5
282 1 0.76769 0.288493 0.5
168 1 0.7922 0.296023 0.5
161 1 0.825574 0.267888 0.5
1407 1 0.804621 0.284274 0.5
1044 1 0.843615 0.272784 0.5
408 1 0.863303 0.286487 0.5
1090 1 0.900675 0.287884 0.5
345 1 0.924598 0.286725 0.5
562 1 0.953936 0.264727 0.5
1300 1 0.996644 0.315323 0.5
722 1 0.0133975 0.303972 0.5
452 1 0.0347297 0.300077 0.5
1137 1 0.0804596 0.275163 0.5
958 1 0.094101 0.286184 0.5
813 1 0.103135 0.305516 0.5
633 1 0.11937 0.313119 0.5
392 1 0.173541 0.316841 0.5
391 1 0.215915 0.29228 0.5
953 1 0.247716 0.290968 0.5
838 1 0.251302 0.319456 0.5
897 1 0.319451 0.278828 0.5
18 1 0.338765 0.297925 0.5
22 1 0.357343 0.293694 0.5
874 1 0.363333 0.30957 0.5
97 1 0.395015 0.295545 0.5
1142 1 0.433815 0.294792 0.5
1582 2 0.463016 0.291704 0.5
942 1 0.495865 0.290366 0.5
884 1 0.516219 0.296792 0.5
1289 1 0.530053 0.281129 0.5
1439 1 0.563565 0.296885 0.5
858 1 0.577784 0.282189 0.5
1476 1 0.593708 0.297852 0.5
763 1 0.642697 0.291706 0.5
1314 1 0.627112 0.300612 0.5
679 1 0.658007 0.299453 0.5
166 1 0.680072 0.306635 0.5
204 1 0.713326 0.292885 0.5
716 1 0.746258 0.285767 0.5
53 1 0.731024 0.295491 0.5
534 1 0.824325 0.30259 0.5
707 1 0.843961 0.303104 0.5
868 1 0.871403 0.306433 0.5
1021 1 0.924643 0.303517 0.5
374 1 0.944557 0.297 0.5
470 1 0.964512 0.286382 0.5
896 1 0.00215362 0.288114 0.5
1234 1 0.0127326 0.322607 0.5
1009 1 0.0482054 0.317791 0.5
725 1 0.0671651 0.313864 0.5
164 1 0.103039 0.324714 0.5
83 1 0.155012 0.348783 0.5
188 1 0.148607 0.315634 0.5
488 1 0.160824 0.329916 0.5
1243 1 0.181679 0.334819 0.5
175 1 0.199826 0.333191 0.5
1094 1 0.214365 0.319231 0.5
546 1 0.232762 0.328598 0.5
659 1 0.327863 0.313581 0.5
990 1 0.347225 0.318327 0.5
537 1 0.366987 0.326518 0.5
1357 1 0.380933 0.316214 0.5
960 1 0.432758 0.338619 0.5
1004 1 0.402975 0.327919 0.5
986 1 0.432292 0.314799 0.5
1524 2 0.492664 0.321561 0.5
1065 1 0.529809 0.319416 0.5
905 1 0.550475 0.308806 0.5
1126 1 0.577715 0.307461 0.5
1342 1 0.611617 0.308322 0.5
853 1 0.645896 0.312717 0.5
936 1 0.629816 0.332921 0.5
910 1 0.647896 0.330878 0.5
289 1 0.662201 0.322215 0.5
1404 1 0.715694 0.323428 0.5
826 1 0.726386 0.33977 0.5
709 1 0.760298 0.32243 0.5
241 1 0.748325 0.304105 0.5
1340 1 0.765726 0.305058 0.5
1443 1 0.805915 0.313552 0.5
373 1 0.787884 0.31669 0.5
817 1 0.816225 0.332305 0.5
324 1 0.845918 0.321322 0.5
1268 1 0.890931 0.314049 0.5
469 1 0.907077 0.309598 0.5
1336 1 0.935963 0.316625 0.5
1170 1 0.950359 0.343745 0.5
396 1 0.982371 0.321834 0.5
65 1 0.041185 0.350097 0.5
113 1 0.0287972 0.332603 0.5
664 1 0.0814135 0.357466 0.5
1007 1 0.0852809 0.321448 0.5
274 1 0.094938 0.339594 0.5
456 1 0.0664025 0.333422 0.5
865 1 0.157887 0.372652 0.5
1442 1 0.172979 0.356033 0.5
11 1 0.210675 0.352247 0.5
461 1 0.235611 0.355821 0.5
570 1 0.266288 0.355365 0.5
901 1 0.265383 0.332153 0.5
244 1 0.283275 0.329145 0.5
878 1 0.302949 0.330869 0.5
981 1 0.333979 0.338149 0.5
829 1 0.383313 0.337365 0.5
1275 1 0.399694 0.344748 0.5
1405 1 0.457776 0.332146 0.5
699 1 0.51751 0.358562 0.5
505 1 0.541162 0.333613 0.5
1092 1 0.562156 0.356502 0.5
582 1 0.577215 0.325281 0.5
1489 1 0.594067 0.318197 0.5
753 1 0.648543 0.347752 0.5
435 1 0.634103 0.359468 0.5
416 1 0.694748 0.320897 0.5
572 1 0.691158 0.344998 0.5
502 1 0.73352 0.359393 0.5
1071 1 0.745445 0.332918 0.5
460 1 0.775034 0.331281 0.5
62 1 0.792423 0.33605 0.5
1338 1 0.87423 0.32808 0.5
617 1 0.897756 0.331256 0.5
656 1 0.917868 0.323906 0.5
1179 1 0.933017 0.339319 0.5
962 1 0.973105 0.347404 0.5
642 1 0.000448268 0.342914 0.5
793 1 0.0171236 0.372692 0.5
17 1 0.0334231 0.379047 0.5
1480 1 0.0633289 0.361844 0.5
1075 1 0.0924165 0.371092 0.5
974 1 0.100086 0.391655 0.5
846 1 0.10848 0.376264 0.5
1139 1 0.11226 0.357218 0.5
1194 1 0.152372 0.388143 0.5
1599 2 0.189719 0.381555 0.5
1012 1 0.219996 0.367414 0.5
400 1 0.250624 0.347106 0.5
80 1 0.264873 0.377898 0.5
1308 1 0.290255 0.362717 0.5
1156 1 0.301479 0.349754 0.5
932 1 0.358169 0.343789 0.5
15 1 0.371872 0.365481 0.5
1450 1 0.361204 0.378239 0.5
788 1 0.448356 0.374483 0.5
972 1 0.451263 0.353488 0.5
1451 1 0.474366 0.35532 0.5
71 1 0.50068 0.353811 0.5
1373 1 0.505705 0.40238 0.5
1196 1 0.577725 0.368052 0.5
646 1 0.534454 0.349757 0.5
1571 2 0.602211 0.350573 0.5
127 1 0.608264 0.377896 0.5
134 1 0.639293 0.375826 0.5
228 1 0.67031 0.343745 0.5
1286 1 0.708943 0.341901 0.5
1600 2 0.775893 0.358218 0.5
1152 1 0.805915 0.353284 0.5
1542 2 0.842857 0.349585 0.5
1098 1 0.86677 0.378538 0.5
295 1 0.871265 0.359361 0.5
466 1 0.897043 0.362225 0.5
317 1 0.918909 0.361864 0.5
1463 1 0.915359 0.343842 0.5
615 1 0.936676 0.356334 0.5
675 1 0.922605 0.382472 0.5
1160 1 0.96062 0.384397 0.5
1032 1 0.979854 0.389469 0.5
78 1 0.000271868 0.377517 0.5
797 1 0.0154334 0.390011 0.5
1581 2 0.0552275 0.39812 0.5
322 1 0.0804835 0.387161 0.5
184 1 0.125942 0.375154 0.5
88 1 0.117294 0.393497 0.5
568 1 0.136413 0.399007 0.5
908 1 0.157873 0.406438 0.5
247 1 0.208479 0.410398 0.5
1188 1 0.218147 0.388866 0.5
1331 1 0.238963 0.38447 0.5
819 1 0.248953 0.366366 0.5
894 1 0.255202 0.390129 0.5
77 1 0.284052 0.390486 0.5
1594 2 0.315305 0.384386 0.5
146 1 0.348769 0.395598 0.5
1048 1 0.352379 0.360939 0.5
269 1 0.367108 0.399628 0.5
533 1 0.381373 0.385771 0.5
592 1 0.414818 0.396054 0.5
948 1 0.453977 0.392934 0.5
1393 1 0.431811 0.390324 0.5
945 1 0.468575 0.383483 0.5
163 1 0.487208 0.366187 0.5
988 1 0.506678 0.369691 0.5
35 1 0.527705 0.389725 0.5
1403 1 0.545892 0.368393 0.5
1181 1 0.54819 0.385457 0.5
535 1 0.581619 0.386601 0.5
1163 1 0.60308 0.396027 0.5
101 1 0.656971 0.375554 0.5
1302 1 0.674936 0.388645 0.5
1575 2 0.708495 0.376504 0.5
1585 2 0.786068 0.399184 0.5
33 1 0.805652 0.37838 0.5
1344 1 0.822061 0.36854 0.5
1307 1 0.852186 0.412599 0.5
830 1 0.870884 0.398375 0.5
930 1 0.891463 0.390615 0.5
257 1 0.910415 0.402706 0.5
622 1 0.957143 0.401605 0.5
352 1 0.978458 0.406659 0.5
1303 1 0.000676106 0.39677 0.5
12 1 0.0283216 0.41207 0.5
786 1 0.0101534 0.416975 0.5
842 1 0.00930393 0.444954 0.5
1127 1 0.0869373 0.406683 0.5
70 1 0.0778693 0.428345 0.5
799 1 0.1022 0.421921 0.5
1283 1 0.119589 0.411949 0.5
212 1 0.139403 0.416766 0.5
704 1 0.157507 0.426472 0.5
1151 1 0.190225 0.408781 0.5
982 1 0.175909 0.426434 0.5
1280 1 0.220069 0.428894 0.5
513 1 0.225526 0.410266 0.5
1041 1 0.242214 0.425243 0.5
687 1 0.247494 0.407435 0.5
693 1 0.26886 0.406227 0.5
1392 1 0.288062 0.409808 0.5
475 1 0.312199 0.417774 0.5
335 1 0.393356 0.408004 0.5
966 1 0.436503 0.40925 0.5
462 1 0.44914 0.420495 0.5
1311 1 0.470059 0.40273 0.5
1158 1 0.490663 0.411126 0.5
613 1 0.520055 0.410946 0.5
1211 1 0.552664 0.414879 0.5
1244 1 0.571971 0.401786 0.5
360 1 0.57612 0.420741 0.5
519 1 0.592339 0.412349 0.5
956 1 0.615592 0.418873 0.5
1477 1 0.586406 0.436732 0.5
1586 2 0.642114 0.403829 0.5
72 1 0.668651 0.41447 0.5
271 1 0.707359 0.415367 0.5
685 1 0.692362 0.404451 0.5
619 1 0.743084 0.424987 0.5
1295 1 0.721799 0.405798 0.5
210 1 0.759379 0.427853 0.5
1174 1 0.757605 0.405365 0.5
1003 1 0.820189 0.390154 0.5
1201 1 0.799241 0.426937 0.5
565 1 0.827807 0.409247 0.5
719 1 0.837534 0.425264 0.5
1089 1 0.83775 0.394077 0.5
924 1 0.872931 0.420502 0.5
1019 1 0.886072 0.408251 0.5
586 1 0.915453 0.428286 0.5
1248 1 0.964188 0.420391 0.5
320 1 0.988902 0.423787 0.5
312 1 0.0227454 0.458074 0.5
1147 1 0.0445725 0.440181 0.5
727 1 0.0624537 0.440474 0.5
183 1 0.0528496 0.465162 0.5
383 1 0.0876061 0.449374 0.5
587 1 0.103826 0.441903 0.5
891 1 0.118071 0.457361 0.5
434 1 0.124529 0.429025 0.5
752 1 0.149424 0.441614 0.5
686 1 0.169352 0.443915 0.5
103 1 0.198258 0.449348 0.5
980 1 0.201146 0.426019 0.5
91 1 0.214407 0.445067 0.5
761 1 0.252682 0.448728 0.5
834 1 0.261438 0.433795 0.5
712 1 0.282233 0.437327 0.5
169 1 0.301793 0.432418 0.5
200 1 0.3146 0.444464 0.5
564 1 0.330444 0.433984 0.5
316 1 0.36097 0.421982 0.5
417 1 0.349532 0.443156 0.5
1545 2 0.424952 0.436572 0.5
467 1 0.494162 0.447944 0.5
1466 1 0.476835 0.43002 0.5
1249 1 0.513712 0.429326 0.5
539 1 0.534016 0.423563 0.5
518 1 0.525834 0.442023 0.5
379 1 0.553824 0.433972 0.5
1313 1 0.595515 0.454215 0.5
739 1 0.584176 0.467216 0.5
338 1 0.613305 0.448036 0.5
256 1 0.63025 0.428898 0.5
920 1 0.630022 0.445086 0.5
1367 1 0.648008 0.452772 0.5
284 1 0.666137 0.432021 0.5
494 1 0.687001 0.424602 0.5
536 1 0.680612 0.443171 0.5
362 1 0.700714 0.441963 0.5
636 1 0.725199 0.423113 0.5
769 1 0.741184 0.446742 0.5
192 1 0.759293 0.447539 0.5
202 1 0.797495 0.447158 0.5
818 1 0.789802 0.473003 0.5
1140 1 0.776367 0.458139 0.5
1236 1 0.816201 0.455052 0.5
1 1 0.818654 0.42971 0.5
1413 1 0.849551 0.438972 0.5
1352 1 0.888689 0.447902 0.5
1337 1 0.889598 0.429434 0.5
1274 1 0.944102 0.448705 0.5
944 1 0.967646 0.442309 0.5
1554 2 0.00600724 0.492442 0.5
1197 1 0.0676566 0.456048 0.5
104 1 0.0987246 0.462798 0.5
660 1 0.145949 0.4584 0.5
209 1 0.132942 0.471432 0.5
576 1 0.15009 0.482494 0.5
674 1 0.174551 0.461267 0.5
117 1 0.200411 0.467433 0.5
749 1 0.231478 0.450936 0.5
38 1 0.221762 0.465507 0.5
1587 2 0.268722 0.478616 0.5
179 1 0.297278 0.452106 0.5
346 1 0.352765 0.464698 0.5
971 1 0.369208 0.437229 0.5
315 1 0.390179 0.431452 0.5
1321 1 0.407135 0.470548 0.5
1551 2 0.46381 0.458953 0.5
309 1 0.509863 0.457132 0.5
1319 1 0.568822 0.454384 0.5
524 1 0.61621 0.466483 0.5
975 1 0.635903 0.46602 0.5
340 1 0.666393 0.453279 0.5
1028 1 0.657027 0.471732 0.5
1036 1 0.680765 0.464131 0.5
599 1 0.702328 0.459419 0.5
773 1 0.717108 0.448202 0.5
852 1 0.724486 0.465144 0.5
448 1 0.831829 0.448445 0.5
1422 1 0.834313 0.470423 0.5
520 1 0.855531 0.457192 0.5
1455 1 0.869376 0.469126 0.5
336 1 0.90455 0.441512 0.5
931 1 0.893281 0.485492 0.5
800 1 0.930935 0.485345 0.5
1024 1 0.953677 0.474304 0.5
4 1 0.0647911 0.505022 0.5
850 1 0.0835619 0.48244 0.5
983 1 0.101672 0.490841 0.5
401 1 0.116454 0.475751 0.5
208 1 0.125616 0.489719 0.5
669 1 0.166881 0.489012 0.5
155 1 0.185307 0.478258 0.5
305 1 0.212229 0.48285 0.5
59 1 0.244517 0.465594 0.5
677 1 0.225983 0.492182 0.5
140 1 0.244702 0.502871 0.5
1485 1 0.304595 0.47267 0.5
862 1 0.334804 0.481424 0.5
1296 1 0.346728 0.502455 0.5
1473 1 0.374233 0.493106 0.5
1468 1 0.374064 0.472581 0.5
1084 1 0.413135 0.486537 0.5
294 1 0.393696 0.481577 0.5
772 1 0.482341 0.485113 0.5
387 1 0.523372 0.487675 0.5
1095 1 0.510148 0.47487 0.5
724 1 0.542053 0.488321 0.5
1192 1 0.559112 0.48574 0.5
1555 2 0.611287 0.495263 0.5
191 1 0.632348 0.515508 0.5
1119 1 0.643782 0.493772 0.5
350 1 0.663143 0.486905 0.5
1511 2 0.702175 0.497362 0.5
1536 2 0.761651 0.48386 0.5
1081 1 0.797843 0.498129 0.5
1423 1 0.866024 0.488089 0.5
370 1 0.885664 0.463798 0.5
476 1 0.943756 0.497181 0.5
935 1 0.022204 0.52068 0.5
1434 1 0.0470158 0.503216 0.5
526 1 0.0775102 0.522604 0.5
705 1 0.0438965 0.484443 0.5
357 1 0.100428 0.525055 0.5
492 1 0.120615 0.523402 0.5
1387 1 0.13021 0.506781 0.5
1341 1 0.148578 0.500286 0.5
1534 2 0.192048 0.510284 0.5
1053 1 0.229332 0.513834 0.5
1548 2 0.305549 0.503002 0.5
808 1 0.37761 0.517284 0.5
87 1 0.387893 0.501594 0.5
760 1 0.406015 0.502369 0.5
1578 2 0.439404 0.506669 0.5
73 1 0.466858 0.525159 0.5
1113 1 0.47266 0.505913 0.5
1378 1 0.503358 0.499341 0.5
1447 1 0.485925 0.518958 0.5
870 1 0.518868 0.510724 0.5
1540 2 0.553791 0.527225 0.5
92 1 0.600104 0.525767 0.5
363 1 0.629487 0.553786 0.5
1412 1 0.616988 0.526453 0.5
52 1 0.64767 0.525367 0.5
182 1 0.657232 0.503386 0.5
239 1 0.704142 0.524968 0.5
661 1 0.732091 0.509669 0.5
601 1 0.732001 0.481028 0.5
1306 1 0.749185 0.524989 0.5
658 1 0.76189 0.51204 0.5
1252 1 0.781711 0.521061 0.5
1062 1 0.847283 0.532505 0.5
1504 2 0.887375 0.515326 0.5
1375 1 0.029756 0.545551 0.5
863 1 0.0604856 0.545052 0.5
1112 1 0.0483417 0.527047 0.5
1503 2 0.0832034 0.567071 0.5
426 1 0.0869669 0.538217 0.5
1291 1 0.134795 0.536673 0.5
556 1 0.142241 0.521385 0.5
347 1 0.163143 0.514082 0.5
806 1 0.157597 0.536139 0.5
439 1 0.171524 0.550183 0.5
354 1 0.191553 0.541216 0.5
478 1 0.218568 0.528886 0.5
741 1 0.23637 0.529535 0.5
455 1 0.242466 0.549319 0.5
277 1 0.262554 0.541213 0.5
226 1 0.288449 0.537455 0.5
453 1 0.334128 0.516039 0.5
916 1 0.356019 0.521854 0.5
464 1 0.394566 0.518425 0.5
1049 1 0.413396 0.531215 0.5
395 1 0.451771 0.545559 0.5
385 1 0.487294 0.551831 0.5
851 1 0.469784 0.542596 0.5
918 1 0.499126 0.537501 0.5
397 1 0.584601 0.557606 0.5
1492 1 0.602722 0.558223 0.5
63 1 0.665652 0.532652 0.5
1255 1 0.676831 0.517487 0.5
1312 1 0.677579 0.54747 0.5
1202 1 0.720861 0.559275 0.5
1285 1 0.731952 0.532922 0.5
306 1 0.750731 0.546728 0.5
828 1 0.783087 0.548757 0.5
566 1 0.867062 0.544057 0.5
1259 1 0.918903 0.544535 0.5
265 1 0.934717 0.541455 0.5
604 1 0.992951 0.530447 0.5
938 1 0.986273 0.550397 0.5
742 1 0.018866 0.574412 0.5
1353 1 0.0450499 0.568794 0.5
1223 1 0.196386 0.564582 0.5
1462 1 0.224308 0.544809 0.5
691 1 0.230016 0.569053 0.5
1189 1 0.250254 0.574283 0.5
1507 2 0.317587 0.559098 0.5
25 1 0.377128 0.536049 0.5
776 1 0.394079 0.546615 0.5
1354 1 0.419026 0.55182 0.5
292 1 0.440458 0.559562 0.5
1122 1 0.468102 0.563947 0.5
471 1 0.505204 0.558376 0.5
746 1 0.511503 0.576268 0.5
780 1 0.579099 0.591535 0.5
1346 1 0.645519 0.542604 0.5
288 1 0.670365 0.562644 0.5
961 1 0.686194 0.571469 0.5
1290 1 0.707099 0.570845 0.5
44 1 0.742182 0.564239 0.5
1402 1 0.777281 0.568792 0.5
1093 1 0.807399 0.560343 0.5
574 1 0.835099 0.521093 0.5
236 1 0.8601 0.566004 0.5
515 1 0.87918 0.573984 0.5
607 1 0.951565 0.54477 0.5
423 1 0.969411 0.556223 0.5
785 1 0.953656 0.561811 0.5
509 1 0.03524 0.582581 0.5
530 1 0.0587826 0.582809 0.5
766 1 0.129317 0.575306 0.5
955 1 0.17505 0.56634 0.5
702 1 0.194457 0.593535 0.5
341 1 0.208029 0.546256 0.5
450 1 0.264176 0.589046 0.5
715 1 0.320901 0.599478 0.5
490 1 0.361487 0.60311 0.5
507 1 0.440669 0.580208 0.5
778 1 0.490596 0.577484 0.5
1229 1 0.512964 0.59246 0.5
225 1 0.543883 0.559953 0.5
457 1 0.585779 0.611422 0.5
1389 1 0.610138 0.576712 0.5
1330 1 0.651429 0.567747 0.5
529 1 0.658504 0.583083 0.5
231 1 0.673605 0.591069 0.5
643 1 0.699141 0.586795 0.5
1364 1 0.749472 0.580451 0.5
671 1 0.782556 0.595874 0.5
1460 1 0.839807 0.561917 0.5
314 1 0.872093 0.597358 0.5
843 1 0.929037 0.600555 0.5
361 1 0.93869 0.574186 0.5
1532 2 0.991804 0.582832 0.5
751 1 0.0210829 0.595962 0.5
1218 1 0.0477389 0.598685 0.5
468 1 0.0233587 0.616731 0.5
43 1 0.066069 0.606102 0.5
1561 2 0.165169 0.597589 0.5
1278 1 0.197514 0.610796 0.5
1527 2 0.22484 0.59551 0.5
767 1 0.300641 0.602194 0.5
1008 1 0.311517 0.618771 0.5
349 1 0.329817 0.620908 0.5
1263 1 0.359393 0.623501 0.5
1343 1 0.338269 0.595527 0.5
837 1 0.374737 0.61327 0.5
1497 1 0.403845 0.581102 0.5
552 1 0.458126 0.588361 0.5
1281 1 0.478699 0.611955 0.5
1359 1 0.490356 0.640447 0.5
291 1 0.493816 0.599022 0.5
334 1 0.495084 0.621492 0.5
1232 1 0.567003 0.610696 0.5
1457 1 0.546665 0.614445 0.5
418 1 0.635789 0.600733 0.5
1385 1 0.619719 0.612195 0.5
814 1 0.664042 0.623567 0.5
275 1 0.656274 0.606687 0.5
135 1 0.691961 0.602931 0.5
825 1 0.741361 0.595851 0.5
156 1 0.762931 0.591896 0.5
199 1 0.793282 0.609555 0.5
109 1 0.822618 0.595572 0.5
713 1 0.839697 0.60891 0.5
1087 1 0.878427 0.615182 0.5
51 1 0.908799 0.605249 0.5
1187 1 0.918256 0.62327 0.5
406 1 0.957101 0.577302 0.5
1203 1 0.964846 0.600282 0.5
344 1 0.996572 0.610513 0.5
1172 1 0.0100357 0.631115 0.5
1025 1 0.992939 0.63913 0.5
978 1 0.0546686 0.639863 0.5
1235 1 0.0562665 0.621992 0.5
48 1 0.105413 0.597056 0.5
358 1 0.0901476 0.619394 0.5
157 1 0.146421 0.624124 0.5
268 1 0.155039 0.642183 0.5
1333 1 0.172093 0.642048 0.5
474 1 0.193725 0.62823 0.5
1238 1 0.222725 0.631966 0.5
144 1 0.250541 0.627511 0.5
1406 1 0.268817 0.649222 0.5
821 1 0.238253 0.640484 0.5
611 1 0.295613 0.638619 0.5
1020 1 0.35729 0.642079 0.5
353 1 0.376454 0.641492 0.5
906 1 0.457223 0.614761 0.5
976 1 0.471871 0.627073 0.5
807 1 0.475241 0.663527 0.5
198 1 0.507877 0.609034 0.5
549 1 0.511284 0.63007 0.5
414 1 0.514319 0.651351 0.5
139 1 0.528999 0.625907 0.5
1349 1 0.533557 0.646968 0.5
323 1 0.571333 0.629139 0.5
1039 1 0.572857 0.652915 0.5
1176 1 0.600031 0.629286 0.5
1213 1 0.638746 0.624003 0.5
297 1 0.674115 0.609531 0.5
879 1 0.677046 0.63535 0.5
1260 1 0.692305 0.628552 0.5
991 1 0.710509 0.618691 0.5
877 1 0.727789 0.613503 0.5
411 1 0.746591 0.614869 0.5
136 1 0.743759 0.633963 0.5
1508 2 0.775283 0.632616 0.5
371 1 0.804716 0.622119 0.5
1410 1 0.824128 0.633624 0.5
1461 1 0.822865 0.615543 0.5
293 1 0.850009 0.62405 0.5
37 1 0.874874 0.656037 0.5
359 1 0.894668 0.619711 0.5
762 1 0.920523 0.645288 0.5
420 1 0.943771 0.641242 0.5
1046 1 0.978628 0.61444 0.5
82 1 0.0400955 0.653809 0.5
698 1 0.0111051 0.651197 0.5
94 1 0.0665001 0.652908 0.5
178 1 0.0845516 0.634567 0.5
47 1 0.0933099 0.658358 0.5
1535 2 0.116422 0.636695 0.5
1382 1 0.175019 0.666343 0.5
382 1 0.192565 0.647261 0.5
1351 1 0.221299 0.649137 0.5
559 1 0.248917 0.66309 0.5
1011 1 0.254583 0.682667 0.5
922 1 0.336324 0.653493 0.5
820 1 0.369628 0.657701 0.5
926 1 0.393901 0.616515 0.5
1047 1 0.394701 0.655849 0.5